    2    2    1    1
  0.2319413E+02  0.4033119E-09  0.4033119E-09  0.4033119E-09  0.5000000E-15
  1.000000000000000E-004
  CAR 
 Germanium Diamond w/ SOC                
    8  286   24
 
  0.0000000E+00  0.0000000E+00  0.0000000E+00  0.1079797E-03
   1       -9.181304
   2       -9.181304
   3        3.244438
   4        3.244438
   5        3.246681
   6        3.246681
   7        3.534109
   8        3.534109
   9        3.534109
  10        3.534109
  11        5.798437
  12        5.798437
  13        6.006154
  14        6.006154
  15        6.006154
  16        6.006154
  17        9.586530
  18        9.586530
  19       12.643138
  20       12.643138
  21       12.643138
  22       12.643138
  23       13.962974
  24       13.963277
 
  0.4761905E-01  0.0000000E+00  0.0000000E+00  0.8638376E-03
   1       -9.154193
   2       -9.154193
   3        2.494847
   4        2.494847
   5        3.282111
   6        3.282111
   7        3.475803
   8        3.475803
   9        4.008161
  10        4.008161
  11        5.897210
  12        5.897210
  13        6.083118
  14        6.083118
  15        6.089824
  16        6.089824
  17        9.744360
  18        9.744360
  19       12.409811
  20       12.409811
  21       12.410827
  22       12.410828
  23       13.825143
  24       13.825143
 
  0.9523810E-01  0.0000000E+00  0.0000000E+00  0.8638376E-03
   1       -9.073114
   2       -9.073114
   3        1.603323
   4        1.603323
   5        3.134804
   6        3.134804
   7        3.323907
   8        3.323907
   9        4.310712
  10        4.310712
  11        6.138629
  12        6.138629
  13        6.285235
  14        6.285235
  15        6.435509
  16        6.435509
  17       10.173009
  18       10.173009
  19       12.014266
  20       12.014266
  21       12.015662
  22       12.015662
  23       13.492012
  24       13.492012
 
  0.1428571E+00  0.0000000E+00  0.0000000E+00  0.8638376E-03
   1       -8.939124
   2       -8.939124
   3        0.692340
   4        0.692340
   5        2.937144
   6        2.937144
   7        3.123381
   8        3.123381
   9        4.316673
  10        4.316673
  11        6.409117
  12        6.409117
  13        6.550065
  14        6.550065
  15        7.073564
  16        7.073564
  17       10.739441
  18       10.739441
  19       11.686926
  20       11.686926
  21       11.689337
  22       11.689337
  23       13.208607
  24       13.208607
 
  0.1904762E+00  0.0000000E+00  0.0000000E+00  0.8638376E-03
   1       -8.754147
   2       -8.754147
   3       -0.204563
   4       -0.204563
   5        2.726594
   6        2.726594
   7        2.910823
   8        2.910823
   9        4.186318
  10        4.186318
  11        6.673263
  12        6.673263
  13        6.812801
  14        6.812801
  15        7.843487
  16        7.843487
  17       11.177500
  18       11.177500
  19       11.505234
  20       11.505234
  21       11.511602
  22       11.511602
  23       13.249769
  24       13.249769
 
  0.2380952E+00  0.0000000E+00  0.0000000E+00  0.8638376E-03
   1       -8.521673
   2       -8.521673
   3       -1.066548
   4       -1.066548
   5        2.525833
   6        2.525833
   7        2.708766
   8        2.708766
   9        4.018400
  10        4.018400
  11        6.886752
  12        6.886752
  13        7.020102
  14        7.020102
  15        8.665028
  16        8.665028
  17       11.240918
  18       11.240918
  19       11.513801
  20       11.513801
  21       11.528847
  22       11.528847
  23       13.827063
  24       13.827063
 
  0.2857143E+00  0.0000000E+00  0.0000000E+00  0.8638376E-03
   1       -8.247838
   2       -8.247838
   3       -1.876646
   4       -1.876646
   5        2.347896
   6        2.347896
   7        2.530048
   8        2.530048
   9        3.854992
  10        3.854992
  11        7.021055
  12        7.021055
  13        7.143642
  14        7.143642
  15        9.503931
  16        9.503931
  17       11.098418
  18       11.098418
  19       11.734107
  20       11.734107
  21       11.762060
  22       11.762060
  23       14.707208
  24       14.707208
 
  0.3333333E+00  0.0000000E+00  0.0000000E+00  0.8638376E-03
   1       -7.943798
   2       -7.943798
   3       -2.616358
   4       -2.616358
   5        2.200133
   6        2.200133
   7        2.381866
   8        2.381866
   9        3.714321
  10        3.714321
  11        7.079036
  12        7.079036
  13        7.189426
  14        7.189426
  15       10.259580
  16       10.259580
  17       11.032686
  18       11.032686
  19       12.156285
  20       12.156285
  21       12.198814
  22       12.198814
  23       15.517073
  24       15.517073
 
  0.3809524E+00  0.0000000E+00  0.0000000E+00  0.8638376E-03
   1       -7.630913
   2       -7.630913
   3       -3.259623
   4       -3.259623
   5        2.086746
   6        2.086746
   7        2.268293
   8        2.268293
   9        3.604762
  10        3.604762
  11        7.086492
  12        7.086492
  13        7.186409
  14        7.186410
  15       10.478078
  16       10.478078
  17       11.563774
  18       11.563774
  19       12.745520
  20       12.745520
  21       12.802208
  22       12.802208
  23       15.772896
  24       15.772896
 
  0.4285714E+00  0.0000000E+00  0.0000000E+00  0.8638376E-03
   1       -7.350274
   2       -7.350274
   3       -3.762103
   4       -3.762103
   5        2.010125
   6        2.010125
   7        2.191607
   8        2.191607
   9        3.530244
  10        3.530244
  11        7.073245
  12        7.073245
  13        7.165953
  14        7.165954
  15       10.411854
  16       10.411854
  17       12.454914
  18       12.454914
  19       13.452518
  20       13.452518
  21       13.523908
  22       13.523908
  23       15.283715
  24       15.283716
 
  0.4761905E+00  0.0000000E+00  0.0000000E+00  0.8638376E-03
   1       -7.172642
   2       -7.172642
   3       -4.051098
   4       -4.051098
   5        1.971556
   6        1.971556
   7        2.153014
   8        2.153014
   9        3.492628
  10        3.492628
  11        7.061201
  12        7.061201
  13        7.150309
  14        7.150309
  15       10.360309
  16       10.360309
  17       13.374242
  18       13.374242
  19       14.158893
  20       14.158893
  21       14.256944
  22       14.256945
  23       14.471490
  24       14.471490
 
  0.4761905E-01  0.4761905E-01  0.0000000E+00  0.6478782E-03
   1       -9.145130
   2       -9.145130
   3        2.427278
   4        2.427278
   5        3.180644
   6        3.180644
   7        3.346651
   8        3.346651
   9        4.242477
  10        4.242477
  11        5.785674
  12        5.785674
  13        6.126488
  14        6.126488
  15        6.212401
  16        6.212401
  17        9.794299
  18        9.794299
  19       12.062060
  20       12.062060
  21       12.680033
  22       12.680033
  23       14.046912
  24       14.052362
 
  0.9523810E-01  0.4761905E-01  0.0000000E+00  0.2591513E-02
   1       -9.081966
   2       -9.081966
   3        1.764718
   4        1.764718
   5        3.023297
   6        3.023297
   7        3.193110
   8        3.193110
   9        4.593475
  10        4.593475
  11        5.785832
  12        5.785832
  13        6.394634
  14        6.394634
  15        6.495476
  16        6.495476
  17       10.128233
  18       10.128233
  19       11.617829
  20       11.617829
  21       12.503430
  22       12.503430
  23       13.847536
  24       13.847536
 
  0.1428571E+00  0.4761905E-01  0.0000000E+00  0.2591513E-02
   1       -8.965491
   2       -8.965491
   3        0.923424
   4        0.923424
   5        2.819882
   6        2.819882
   7        3.019700
   8        3.019700
   9        4.678730
  10        4.678730
  11        5.970120
  12        5.970120
  13        6.703666
  14        6.703666
  15        7.020032
  16        7.020032
  17       10.652632
  18       10.652632
  19       11.260504
  20       11.260504
  21       12.193722
  22       12.193722
  23       13.519053
  24       13.519053
 
  0.1904762E+00  0.4761905E-01  0.0000000E+00  0.2591513E-02
   1       -8.797255
   2       -8.797255
   3        0.050843
   4        0.050843
   5        2.604896
   6        2.604896
   7        2.810510
   8        2.810510
   9        4.581194
  10        4.581194
  11        6.254455
  12        6.254455
  13        6.991218
  14        6.991218
  15        7.685491
  16        7.685491
  17       10.961110
  18       10.961110
  19       11.283803
  20       11.283803
  21       11.978547
  22       11.978547
  23       13.371918
  24       13.371918
 
  0.2380952E+00  0.4761905E-01  0.0000000E+00  0.2591513E-02
   1       -8.580164
   2       -8.580164
   3       -0.807063
   4       -0.807063
   5        2.402596
   6        2.402596
   7        2.593229
   8        2.593229
   9        4.421203
  10        4.421203
  11        6.537555
  12        6.537555
  13        7.217045
  14        7.217045
  15        8.391776
  16        8.391776
  17       10.950291
  18       10.950291
  19       11.545352
  20       11.545352
  21       11.938859
  22       11.938859
  23       13.689642
  24       13.689642
 
  0.2857143E+00  0.4761905E-01  0.0000000E+00  0.2591513E-02
   1       -8.319234
   2       -8.319234
   3       -1.625516
   4       -1.625516
   5        2.222647
   6        2.222647
   7        2.392474
   8        2.392474
   9        4.254110
  10        4.254110
  11        6.754904
  12        6.754904
  13        7.349895
  14        7.349895
  15        9.100090
  16        9.100090
  17       11.084010
  18       11.084010
  19       11.586724
  20       11.586724
  21       12.110298
  22       12.110298
  23       14.449625
  24       14.449625
 
  0.3333333E+00  0.4761905E-01  0.0000000E+00  0.2591513E-02
   1       -8.023551
   2       -8.023551
   3       -2.384106
   4       -2.384106
   5        2.066530
   6        2.066530
   7        2.226198
   8        2.226198
   9        4.103453
  10        4.103453
  11        6.885364
  12        6.885364
  13        7.390115
  14        7.390115
  15        9.782190
  16        9.782190
  17       11.175014
  18       11.175014
  19       11.845860
  20       11.845860
  21       12.490550
  22       12.490550
  23       15.281597
  24       15.281597
 
  0.3809524E+00  0.4761905E-01  0.0000000E+00  0.2591513E-02
   1       -7.710172
   2       -7.710172
   3       -3.058919
   4       -3.058919
   5        1.932532
   6        1.932532
   7        2.106760
   8        2.106760
   9        3.980118
  10        3.980118
  11        6.948119
  12        6.948119
  13        7.365105
  14        7.365105
  15       10.312208
  16       10.312208
  17       11.315444
  18       11.315444
  19       12.439272
  20       12.439272
  21       13.045839
  22       13.045839
  23       15.692878
  24       15.692878
 
  0.4285714E+00  0.4761905E-01  0.0000000E+00  0.2591513E-02
   1       -7.412174
   2       -7.412174
   3       -3.612355
   4       -3.612355
   5        1.823004
   6        1.823004
   7        2.037767
   8        2.037767
   9        3.889542
  10        3.889542
  11        6.977917
  12        6.977917
  13        7.309141
  14        7.309141
  15       10.481490
  16       10.481490
  17       11.868884
  18       11.868884
  19       13.196370
  20       13.196370
  21       13.721625
  22       13.721625
  23       15.315872
  24       15.315873
 
  0.4761905E+00  0.4761905E-01  0.0000000E+00  0.2591513E-02
   1       -7.190416
   2       -7.190416
   3       -3.980934
   4       -3.980934
   5        1.743900
   6        1.743900
   7        2.016411
   8        2.016411
   9        3.834451
  10        3.834451
  11        7.003147
  12        7.003147
  13        7.249138
  14        7.249138
  15       10.484957
  16       10.484957
  17       12.674665
  18       12.674665
  19       13.971490
  20       13.971490
  21       14.355484
  22       14.355485
  23       14.570318
  24       14.570318
 
 -0.4761905E+00  0.4761905E-01  0.0000000E+00  0.2591513E-02
   1       -7.125933
   2       -7.125933
   3       -4.082158
   4       -4.082158
   5        1.700222
   6        1.700222
   7        2.039115
   8        2.039115
   9        3.816179
  10        3.816179
  11        7.038517
  12        7.038517
  13        7.201566
  14        7.201566
  15       10.484380
  16       10.484380
  17       13.363216
  18       13.363216
  19       13.703430
  20       13.703430
  21       14.089020
  22       14.089020
  23       14.883186
  24       14.883184
 
 -0.4285714E+00  0.4761905E-01  0.0000000E+00  0.2591513E-02
   1       -7.251020
   2       -7.251020
   3       -3.883388
   4       -3.883388
   5        1.695092
   6        1.695092
   7        2.102991
   8        2.102991
   9        3.835103
  10        3.835103
  11        7.080638
  12        7.080638
  13        7.177668
  14        7.177668
  15       10.507296
  16       10.507296
  17       12.560839
  18       12.560839
  19       13.300661
  20       13.300661
  21       14.296030
  22       14.296030
  23       14.797881
  24       14.797883
 
 -0.3809524E+00  0.4761905E-01  0.0000000E+00  0.2591513E-02
   1       -7.507017
   2       -7.507017
   3       -3.444011
   4       -3.444011
   5        1.730348
   6        1.730348
   7        2.205344
   8        2.205344
   9        3.890778
  10        3.890778
  11        7.094494
  12        7.094494
  13        7.197895
  14        7.197895
  15       10.511477
  16       10.511477
  17       11.739071
  18       11.739071
  19       12.552300
  20       12.552300
  21       13.720572
  22       13.720572
  23       15.396613
  24       15.396614
 
 -0.3333333E+00  0.4761905E-01  0.0000000E+00  0.2591513E-02
   1       -7.815303
   2       -7.815303
   3       -2.844534
   4       -2.844534
   5        1.806922
   6        1.806922
   7        2.343042
   8        2.343042
   9        3.981658
  10        3.981658
  11        7.063790
  12        7.063790
  13        7.239944
  14        7.239944
  15       10.265425
  16       10.265425
  17       11.243623
  18       11.243623
  19       11.920186
  20       11.920186
  21       13.041753
  22       13.041753
  23       15.600251
  24       15.600251
 
 -0.2857143E+00  0.4761905E-01  0.0000000E+00  0.2591513E-02
   1       -8.125418
   2       -8.125418
   3       -2.138730
   4       -2.138730
   5        1.924978
   6        1.924978
   7        2.511896
   8        2.511896
   9        4.104336
  10        4.104336
  11        6.986681
  12        6.986681
  13        7.243345
  14        7.243345
  15        9.624777
  16        9.624777
  17       11.206021
  18       11.206021
  19       11.449015
  20       11.449015
  21       12.501325
  22       12.501325
  23       15.012689
  24       15.012689
 
 -0.2380952E+00  0.4761905E-01  0.0000000E+00  0.2591513E-02
   1       -8.410857
   2       -8.410857
   3       -1.358532
   4       -1.358532
   5        2.083693
   6        2.083693
   7        2.705613
   8        2.705613
   9        4.251595
  10        4.251595
  11        6.843989
  12        6.843989
  13        7.155932
  14        7.155932
  15        8.894108
  16        8.894108
  17       11.173313
  18       11.173313
  19       11.276765
  20       11.276765
  21       12.151829
  22       12.151829
  23       14.175003
  24       14.175003
 
 -0.1904762E+00  0.4761905E-01  0.0000000E+00  0.2591513E-02
   1       -8.657899
   2       -8.657899
   3       -0.526440
   4       -0.526440
   5        2.281050
   6        2.281050
   7        2.914095
   8        2.914095
   9        4.407950
  10        4.407950
  11        6.632544
  12        6.632544
  13        6.942855
  14        6.942855
  15        8.185210
  16        8.185210
  17       11.110965
  18       11.110965
  19       11.281442
  20       11.281442
  21       11.924525
  22       11.924525
  23       13.561952
  24       13.561952
 
 -0.1428571E+00  0.4761905E-01  0.0000000E+00  0.2591513E-02
   1       -8.859079
   2       -8.859079
   3        0.335102
   4        0.335102
   5        2.513522
   6        2.513522
   7        3.120456
   8        3.120456
   9        4.537984
  10        4.537984
  11        6.380911
  12        6.380911
  13        6.620700
  14        6.620700
  15        7.521648
  16        7.521648
  17       11.014789
  18       11.014789
  19       11.245567
  20       11.245567
  21       11.829564
  22       11.829564
  23       13.460147
  24       13.460147
 
 -0.9523810E-01  0.4761905E-01  0.0000000E+00  0.2591513E-02
   1       -9.010266
   2       -9.010266
   3        1.192682
   4        1.192682
   5        2.776556
   6        2.776556
   7        3.297231
   8        3.297231
   9        4.559951
  10        4.559951
  11        6.138741
  12        6.138741
  13        6.286311
  14        6.286311
  15        6.920699
  16        6.920699
  17       10.468513
  18       10.468513
  19       11.541904
  20       11.541904
  21       12.031668
  22       12.031668
  23       13.708895
  24       13.708895
 
 -0.4761905E-01  0.4761905E-01  0.0000000E+00  0.1295756E-02
   1       -9.109053
   2       -9.109053
   3        1.974120
   4        1.974120
   5        3.066007
   6        3.066007
   7        3.409736
   8        3.409736
   9        4.348713
  10        4.348713
  11        5.962860
  12        5.962860
  13        6.097113
  14        6.097113
  15        6.417081
  16        6.417081
  17        9.990483
  18        9.990483
  19       11.955005
  20       11.955005
  21       12.333949
  22       12.333949
  23       14.003829
  24       14.003873
 
  0.9523810E-01  0.9523810E-01  0.0000000E+00  0.6478782E-03
   1       -9.036722
   2       -9.036722
   3        1.536913
   4        1.536913
   5        2.804151
   6        2.804151
   7        2.926856
   8        2.926856
   9        5.070365
  10        5.070365
  11        5.500231
  12        5.500231
  13        6.660827
  14        6.660827
  15        6.724414
  16        6.724414
  17       10.346478
  18       10.346478
  19       11.146243
  20       11.146243
  21       12.790741
  22       12.790741
  23       14.271797
  24       14.272857
 
  0.1428571E+00  0.9523810E-01  0.0000000E+00  0.2591513E-02
   1       -8.937880
   2       -8.937880
   3        0.941483
   4        0.941483
   5        2.590821
   6        2.590821
   7        2.711495
   8        2.711495
   9        5.291410
  10        5.291410
  11        5.472743
  12        5.472743
  13        7.011722
  14        7.011722
  15        7.124282
  16        7.124282
  17       10.749708
  18       10.749708
  19       10.804471
  20       10.804471
  21       12.686961
  22       12.686961
  23       14.116599
  24       14.116600
 
  0.1904762E+00  0.9523810E-01  0.0000000E+00  0.2591513E-02
   1       -8.786708
   2       -8.786708
   3        0.183572
   4        0.183572
   5        2.369113
   6        2.369113
   7        2.496145
   8        2.496145
   9        5.226974
  10        5.226974
  11        5.705001
  12        5.705001
  13        7.331428
  14        7.331428
  15        7.668289
  16        7.668289
  17       10.559611
  18       10.559611
  19       11.355468
  20       11.355468
  21       12.487451
  22       12.487451
  23       13.859032
  24       13.859032
 
  0.2380952E+00  0.9523810E-01  0.0000000E+00  0.2591513E-02
   1       -8.585578
   2       -8.585578
   3       -0.618943
   4       -0.618943
   5        2.147190
   6        2.147190
   7        2.275911
   8        2.275911
   9        5.084619
  10        5.084619
  11        6.023212
  12        6.023212
  13        7.587131
  14        7.587131
  15        8.171643
  16        8.171643
  17       10.617332
  18       10.617332
  19       11.829261
  20       11.829261
  21       12.407194
  22       12.407194
  23       13.875114
  24       13.875114
 
  0.2857143E+00  0.9523810E-01  0.0000000E+00  0.2591513E-02
   1       -8.338588
   2       -8.338588
   3       -1.413415
   4       -1.413415
   5        1.922326
   6        1.922326
   7        2.089107
   8        2.089107
   9        4.918831
  10        4.918831
  11        6.342893
  12        6.342893
  13        7.743629
  14        7.743629
  15        8.587605
  16        8.587605
  17       10.965875
  18       10.965875
  19       11.991386
  20       11.991386
  21       12.522215
  22       12.522215
  23       14.363059
  24       14.363059
 
  0.3333333E+00  0.9523810E-01  0.0000000E+00  0.2591513E-02
   1       -8.053105
   2       -8.053105
   3       -2.168707
   4       -2.168707
   5        1.702332
   6        1.702332
   7        1.953411
   8        1.953411
   9        4.758411
  10        4.758411
  11        6.586746
  12        6.586746
  13        7.792889
  14        7.792889
  15        9.010749
  16        9.010749
  17       11.461572
  18       11.461572
  19       12.031555
  20       12.031555
  21       12.848153
  22       12.848153
  23       15.094812
  24       15.094812
 
  0.3809524E+00  0.9523810E-01  0.0000000E+00  0.2591513E-02
   1       -7.742737
   2       -7.742737
   3       -2.857983
   4       -2.857983
   5        1.503771
   6        1.503771
   7        1.866606
   8        1.866606
   9        4.618925
  10        4.618925
  11        6.731191
  12        6.731191
  13        7.758699
  14        7.758699
  15        9.520898
  16        9.520898
  17       11.644822
  18       11.644822
  19       12.512853
  20       12.512853
  21       13.357567
  22       13.357567
  23       15.546707
  24       15.546708
 
  0.4285714E+00  0.9523810E-01  0.0000000E+00  0.2591513E-02
   1       -7.433826
   2       -7.433826
   3       -3.446983
   4       -3.446983
   5        1.336908
   6        1.336908
   7        1.826319
   8        1.826319
   9        4.508856
  10        4.508856
  11        6.809270
  12        6.809270
  13        7.677438
  14        7.677438
  15       10.076422
  16       10.076422
  17       11.701570
  18       11.701570
  19       13.310931
  20       13.310931
  21       13.989246
  22       13.989246
  23       15.235350
  24       15.235353
 
  0.4761905E+00  0.9523810E-01  0.0000000E+00  0.2591513E-02
   1       -7.176997
   2       -7.176997
   3       -3.880455
   4       -3.880455
   5        1.207332
   6        1.207332
   7        1.831145
   8        1.831145
   9        4.432774
  10        4.432774
  11        6.865039
  12        6.865039
  13        7.579898
  14        7.579898
  15       10.517633
  16       10.517633
  17       11.981619
  18       11.981619
  19       14.112319
  20       14.112319
  21       14.487171
  22       14.487172
  23       14.538241
  24       14.538241
 
 -0.4761905E+00  0.9523810E-01  0.0000000E+00  0.2591513E-02
   1       -7.051757
   2       -7.051757
   3       -4.076251
   4       -4.076251
   5        1.118671
   6        1.118671
   7        1.879565
   8        1.879565
   9        4.392976
  10        4.392976
  11        6.927194
  12        6.927194
  13        7.485188
  14        7.485188
  15       10.725260
  16       10.725260
  17       12.566083
  18       12.566083
  19       13.535095
  20       13.535095
  21       13.999094
  22       13.999094
  23       15.129223
  24       15.129223
 
 -0.4285714E+00  0.9523810E-01  0.0000000E+00  0.2591513E-02
   1       -7.117658
   2       -7.117658
   3       -3.974012
   4       -3.974012
   5        1.073678
   6        1.073678
   7        1.969446
   8        1.969446
   9        4.390200
  10        4.390200
  11        7.007515
  12        7.007515
  13        7.400950
  14        7.400950
  15       10.767281
  16       10.767281
  17       12.542437
  18       12.542437
  19       13.165664
  20       13.165664
  21       13.545853
  22       13.545853
  23       15.607335
  24       15.607341
 
 -0.3809524E+00  0.9523810E-01  0.0000000E+00  0.2591513E-02
   1       -7.341197
   2       -7.341197
   3       -3.607800
   4       -3.607800
   5        1.074799
   6        1.074799
   7        2.097801
   8        2.097802
   9        4.423853
  10        4.423853
  11        7.102655
  12        7.102655
  13        7.324996
  14        7.324996
  15       10.618991
  16       10.618991
  17       11.935559
  18       11.935559
  19       12.388391
  20       12.388391
  21       14.376663
  22       14.376663
  23       14.992441
  24       14.992441
 
 -0.3333333E+00  0.9523810E-01  0.0000000E+00  0.2591513E-02
   1       -7.640186
   2       -7.640186
   3       -3.062328
   4       -3.062328
   5        1.124458
   6        1.124458
   7        2.260465
   8        2.260465
   9        4.491852
  10        4.491852
  11        7.177446
  12        7.177446
  13        7.260906
  14        7.260906
  15       10.148547
  16       10.148547
  17       11.677950
  18       11.677950
  19       11.733010
  20       11.733010
  21       14.154847
  22       14.154847
  23       15.173086
  24       15.173086
 
 -0.2857143E+00  0.9523810E-01  0.0000000E+00  0.2591513E-02
   1       -7.953760
   2       -7.953760
   3       -2.403115
   4       -2.403115
   5        1.225464
   6        1.225464
   7        2.451514
   8        2.451514
   9        4.589724
  10        4.589724
  11        7.100400
  12        7.100400
  13        7.277149
  14        7.277149
  15        9.513790
  16        9.513790
  17       11.221140
  18       11.221140
  19       11.670615
  20       11.670615
  21       13.473952
  22       13.473952
  23       15.195376
  24       15.195376
 
 -0.2380952E+00  0.9523810E-01  0.0000000E+00  0.2591513E-02
   1       -8.249221
   2       -8.249221
   3       -1.671499
   4       -1.671499
   5        1.381782
   6        1.381782
   7        2.662089
   8        2.662089
   9        4.708161
  10        4.708161
  11        6.931860
  12        6.931860
  13        7.220031
  14        7.220031
  15        8.922925
  16        8.922925
  17       10.910282
  18       10.910282
  19       11.673928
  20       11.673928
  21       12.901440
  22       12.901440
  23       14.617274
  24       14.617274
 
 -0.1904762E+00  0.9523810E-01  0.0000000E+00  0.2591513E-02
   1       -8.509734
   2       -8.509734
   3       -0.899578
   4       -0.899578
   5        1.600317
   6        1.600317
   7        2.878427
   8        2.878427
   9        4.826775
  10        4.826775
  11        6.706037
  12        6.706037
  13        6.988548
  14        6.988548
  15        8.448063
  16        8.448063
  17       10.807733
  18       10.807733
  19       11.607869
  20       11.607869
  21       12.371164
  22       12.371164
  23       14.158406
  24       14.158406
 
 -0.1428571E+00  0.9523810E-01  0.0000000E+00  0.2591513E-02
   1       -8.726365
   2       -8.726365
   3       -0.124663
   4       -0.124663
   5        1.894329
   6        1.894329
   7        3.078595
   8        3.078595
   9        4.898229
  10        4.898229
  11        6.458133
  12        6.458133
  13        6.642077
  14        6.642077
  15        8.013544
  16        8.013544
  17       10.900606
  18       10.900606
  19       11.451142
  20       11.451142
  21       11.870995
  22       11.870995
  23       14.102248
  24       14.102248
 
 -0.9523810E-01  0.9523810E-01  0.0000000E+00  0.1295756E-02
   1       -8.894149
   2       -8.894149
   3        0.597290
   4        0.597290
   5        2.285793
   6        2.285793
   7        3.229841
   8        3.229841
   9        4.828232
  10        4.828232
  11        6.245171
  12        6.245171
  13        6.368467
  14        6.368467
  15        7.504836
  16        7.504836
  17       10.957777
  18       10.957777
  19       11.157290
  20       11.157290
  21       11.845476
  22       11.845476
  23       14.204398
  24       14.204399
 
  0.1428571E+00  0.1428571E+00  0.0000000E+00  0.6478782E-03
   1       -8.856580
   2       -8.856580
   3        0.651315
   4        0.651315
   5        2.355251
   6        2.355251
   7        2.446015
   8        2.446015
   9        5.130802
  10        5.130802
  11        5.770882
  12        5.770882
  13        7.361693
  14        7.361693
  15        7.393407
  16        7.393407
  17       10.378107
  18       10.378107
  19       11.123003
  20       11.123003
  21       12.975317
  22       12.975317
  23       14.649275
  24       14.655858
 
  0.1904762E+00  0.1428571E+00  0.0000000E+00  0.2591513E-02
   1       -8.722576
   2       -8.722576
   3        0.104452
   4        0.104452
   5        2.124854
   6        2.124854
   7        2.214846
   8        2.214846
   9        5.063673
  10        5.063673
  11        5.930909
  12        5.930909
  13        7.727873
  14        7.727873
  15        7.797834
  16        7.797834
  17       10.199226
  18       10.199226
  19       11.617220
  20       11.617220
  21       12.956086
  22       12.956086
  23       14.552349
  24       14.552349
 
  0.2380952E+00  0.1428571E+00  0.0000000E+00  0.2591513E-02
   1       -8.537760
   2       -8.537760
   3       -0.572232
   4       -0.572232
   5        1.872069
   6        1.872069
   7        1.999285
   8        1.999285
   9        5.153425
  10        5.153425
  11        5.983614
  12        5.983614
  13        8.026982
  14        8.026982
  15        8.120457
  16        8.120457
  17       10.371403
  18       10.371403
  19       12.148393
  20       12.148393
  21       12.888482
  22       12.888482
  23       14.393768
  24       14.393769
 
  0.2857143E+00  0.1428571E+00  0.0000000E+00  0.2591513E-02
   1       -8.305488
   2       -8.305488
   3       -1.293907
   4       -1.293907
   5        1.592466
   6        1.592466
   7        1.825626
   8        1.825626
   9        5.204763
  10        5.204763
  11        6.147944
  12        6.147944