 vasp.5.3.2 13Sep12 (build Sep 27 2012 15:35:12) complex                        
  
 POSCAR found type information on POSCAR  Si Ge
 POSCAR found :  2 types and       2 ions

 ----------------------------------------------------------------------------- 
|                                                                             |
|  ADVICE TO THIS USER RUNNING 'VASP/VAMP'   (HEAR YOUR MASTER'S VOICE ...):  |
|                                                                             |
|      You enforced a specific xc-type in the INCAR file,                     |
|      a different type was found on the POTCAR file                          |
|          I HOPE YOU KNOW, WHAT YOU ARE  DOING                               |
|                                                                             |
 ----------------------------------------------------------------------------- 

 LDA part: xc-table for Pade appr. of Perdew
 WARNING: stress and forces are not correct
 POSCAR, INCAR and KPOINTS ok, starting setup
 FFT: planning ...
 WAVECAR not read
 charge-density read from file: Si0.5Ge0.5                              
 entering main loop
       N       E                     dE             d eps       ncg     rms          rms(c)
DAV:   1     0.123603766186E+02    0.12360E+02   -0.21043E+03  3944   0.168E+02
DAV:   2    -0.464256572759E+01   -0.17003E+02   -0.16102E+02  5200   0.460E+01
DAV:   3    -0.506031174923E+01   -0.41775E+00   -0.41610E+00  4968   0.616E+00
DAV:   4    -0.506114962455E+01   -0.83788E-03   -0.83785E-03  4616   0.328E-01
DAV:   5    -0.506115142468E+01   -0.18001E-05   -0.18000E-05  5040   0.147E-02
RMM:   6    -0.506115142745E+01   -0.27746E-08   -0.26412E-08  1609   0.862E-04
   1 F= -.50611514E+01 E0= -.50611024E+01  d E =-.980913E-04
 writing wavefunctions
