    2    2    1    1
  0.2319413E+02  0.4033119E-09  0.4033119E-09  0.4033119E-09  0.5000000E-15
  1.000000000000000E-004
  CAR 
 Germanium Diamond w/ SOC                
    8   82   24
 
  0.5000000E+00  0.5000000E+00  0.5000000E+00  0.1219512E-01
   1       -7.148076
   2       -7.148076
   3       -4.090076
   4       -4.090076
   5        1.965819
   6        1.965819
   7        2.147268
   8        2.147268
   9        3.488413
  10        3.488413
  11        7.060507
  12        7.060507
  13        7.149171
  14        7.149171
  15       10.354052
  16       10.354052
  17       13.660904
  18       13.660904
  19       14.181103
  20       14.181106
  21       14.337570
  22       14.337571
  23       14.436712
  24       14.436714
 
  0.4761900E+00  0.4761900E+00  0.4761900E+00  0.1219512E-01
   1       -7.172823
   2       -7.172823
   3       -4.051343
   4       -4.051343
   5        1.970658
   6        1.970658
   7        2.152106
   8        2.152106
   9        3.493146
  10        3.493146
  11        7.062277
  12        7.062277
  13        7.151380
  14        7.151380
  15       10.360965
  16       10.360966
  17       13.373397
  18       13.373397
  19       14.159155
  20       14.159155
  21       14.257213
  22       14.257213
  23       14.471421
  24       14.471426
 
  0.4523810E+00  0.4523810E+00  0.4523810E+00  0.1219512E-01
   1       -7.243358
   2       -7.243358
   3       -3.939012
   4       -3.939012
   5        1.985145
   6        1.985145
   7        2.166597
   8        2.166597
   9        3.507280
  10        3.507280
  11        7.067212
  12        7.067212
  13        7.157662
  14        7.157663
  15       10.381142
  16       10.381142
  17       12.921116
  18       12.921116
  19       13.823702
  20       13.823702
  21       13.904988
  22       13.904988
  23       14.888866
  24       14.888877
 
  0.4285710E+00  0.4285710E+00  0.4285710E+00  0.1219512E-01
   1       -7.350441
   2       -7.350441
   3       -3.762370
   4       -3.762370
   5        2.009221
   6        2.009221
   7        2.190693
   8        2.190693
   9        3.530766
  10        3.530766
  11        7.074324
  12        7.074324
  13        7.167027
  14        7.167027
  15       10.412528
  16       10.412528
  17       12.454197
  18       12.454197
  19       13.452605
  20       13.452605
  21       13.523998
  22       13.523998
  23       15.283603
  24       15.283614
 
  0.4047620E+00  0.4047620E+00  0.4047620E+00  0.1219512E-01
   1       -7.483006
   2       -7.483006
   3       -3.532593
   4       -3.532593
   5        2.042835
   6        2.042835
   7        2.224328
   8        2.224328
   9        3.563499
  10        3.563499
  11        7.081923
  12        7.081923
  13        7.177782
  14        7.177782
  15       10.449925
  16       10.449925
  17       11.995201
  18       11.995201
  19       13.088266
  20       13.088266
  21       13.151978
  22       13.151978
  23       15.599406
  24       15.599458
 
  0.3809520E+00  0.3809520E+00  0.3809520E+00  0.1219512E-01
   1       -7.631058
   2       -7.631058
   3       -3.259929
   4       -3.259929
   5        2.085829
   6        2.085829
   7        2.267367
   8        2.267367
   9        3.605293
  10        3.605293
  11        7.087575
  12        7.087575
  13        7.187488
  14        7.187488
  15       10.478763
  16       10.478763
  17       11.563058
  18       11.563058
  19       12.745553
  20       12.745553
  21       12.802244
  22       12.802244
  23       15.772985
  24       15.772992
 
  0.3571430E+00  0.3571430E+00  0.3571430E+00  0.1219512E-01
   1       -7.786641
   2       -7.786641
   3       -2.952574
   4       -2.952574
   5        2.138038
   6        2.138038
   7        2.319644
   8        2.319644
   9        3.655869
  10        3.655869
  11        7.088198
  12        7.088198
  13        7.192998
  14        7.192998
  15       10.451065
  16       10.451065
  17       11.206776
  18       11.206776
  19       12.432786
  20       12.432786
  21       12.482489
  22       12.482489
  23       15.746090
  24       15.746090
 
  0.3333330E+00  0.3333330E+00  0.3333330E+00  0.1219512E-01
   1       -7.943921
   2       -7.943921
   3       -2.616713
   4       -2.616713
   5        2.199194
   6        2.199194
   7        2.380917
   8        2.380917
   9        3.714863
  10        3.714863
  11        7.080122
  12        7.080122
  13        7.190508
  14        7.190508
  15       10.259678
  16       10.259678
  17       11.032563
  18       11.032563
  19       12.156305
  20       12.156305
  21       12.198836
  22       12.198836
  23       15.517321
  24       15.517324
 
  0.3095240E+00  0.3095240E+00  0.3095240E+00  0.1219512E-01
   1       -8.098689
   2       -8.098689
   3       -2.257031
   4       -2.257031
   5        2.268968
   6        2.268968
   7        2.450865
   8        2.450865
   9        3.781694
  10        3.781694
  11        7.059375
  12        7.059375
  13        7.175808
  14        7.175808
  15        9.909602
  16        9.909602
  17       11.032638
  18       11.032638
  19       11.921766
  20       11.921766
  21       11.956974
  22       11.956974
  23       15.147451
  24       15.147451
 
  0.2857140E+00  0.2857140E+00  0.2857140E+00  0.1219512E-01
   1       -8.247941
   2       -8.247941
   3       -1.877058
   4       -1.877058
   5        2.346922
   6        2.346922
   7        2.529065
   8        2.529065
   9        3.855543
  10        3.855543
  11        7.022140
  12        7.022140
  13        7.144724
  14        7.144724
  15        9.503551
  16        9.503551
  17       11.098795
  18       11.098795
  19       11.734142
  20       11.734142
  21       11.762096
  22       11.762096
  23       14.707476
  24       14.707477
 
  0.2619050E+00  0.2619050E+00  0.2619050E+00  0.1219512E-01
   1       -8.389469
   2       -8.389469
   3       -1.479596
   4       -1.479596
   5        2.432470
   6        2.432470
   7        2.614943
   8        2.614943
   9        3.935211
  10        3.935211
  11        6.965461
  12        6.965461
  13        7.093832
  14        7.093832
  15        9.084249
  16        9.084249
  17       11.178509
  18       11.178509
  19       11.597405
  20       11.597405
  21       11.618514
  22       11.618514
  23       14.252529
  24       14.252529
 
  0.2380950E+00  0.2380950E+00  0.2380950E+00  0.1219512E-01
   1       -8.521758
   2       -8.521758
   3       -1.067025
   4       -1.067025
   5        2.524807
   6        2.524807
   7        2.707731
   8        2.707731
   9        4.018946
  10        4.018946
  11        6.887834
  12        6.887834
  13        7.021181
  14        7.021181
  15        8.664575
  16        8.664575
  17       11.241420
  18       11.241420
  19       11.513875
  20       11.513875
  21       11.528921
  22       11.528921
  23       13.827327
  24       13.827327
 
  0.2142860E+00  0.2142860E+00  0.2142860E+00  0.1219512E-01
   1       -8.643625
   2       -8.643625
   3       -0.641530
   4       -0.641530
   5        2.622943
   6        2.622943
   7        2.806435
   8        2.806435
   9        4.104138
  10        4.104138
  11        6.789876
  12        6.789876
  13        6.927005
  14        6.927005
  15        8.249746
  16        8.249746
  17       11.253858
  18       11.253858
  19       11.483830
  20       11.483830
  21       11.493899
  22       11.493899
  23       13.477589
  24       13.477589
 
  0.1904760E+00  0.1904760E+00  0.1904760E+00  0.1219512E-01
   1       -8.754218
   2       -8.754218
   3       -0.205114
   4       -0.205114
   5        2.725492
   6        2.725492
   7        2.909710
   8        2.909710
   9        4.186821
  10        4.186821
  11        6.674354
  12        6.674354
  13        6.813888
  14        6.813888
  15        7.843097
  16        7.843097
  17       11.178014
  18       11.178014
  19       11.505359
  20       11.505359
  21       11.511727
  22       11.511727
  23       13.250070
  24       13.250070
 
  0.1666670E+00  0.1666670E+00  0.1666670E+00  0.1219512E-01
   1       -8.852881
   2       -8.852881
   3        0.240071
   4        0.240071
   5        2.830638
   6        2.830638
   7        3.015754
   8        3.015754
   9        4.260937
  10        4.260937
  11        6.545900
  12        6.545900
  13        6.686541
  14        6.686541
  15        7.448745
  16        7.448745
  17       10.997634
  18       10.997634
  19       11.574785
  20       11.574785
  21       11.578673
  22       11.578673
  23       13.167855
  24       13.167855
 
  0.1428570E+00  0.1428570E+00  0.1428570E+00  0.1219512E-01
   1       -8.939185
   2       -8.939185
   3        0.691710
   4        0.691710
   5        2.935936
   6        2.935936
   7        3.122160
   8        3.122160
   9        4.317019
  10        4.317019
  11        6.410248
  12        6.410248
  13        6.551197
  14        6.551197
  15        7.073413
  16        7.073413
  17       10.739867
  18       10.739867
  19       11.687095
  20       11.687095
  21       11.689507
  22       11.689507
  23       13.209008
  24       13.209016
 
  0.1190480E+00  0.1190480E+00  0.1190480E+00  0.1219512E-01
   1       -9.012704
   2       -9.012704
   3        1.147012
   4        1.147012
   5        3.038286
   6        3.038286
   7        3.225806
   8        3.225806
   9        4.340515
  10        4.340515
  11        6.273410
  12        6.273410
  13        6.415183
  14        6.415183
  15        6.729128
  16        6.729128
  17       10.451965
  18       10.451965
  19       11.836151
  20       11.836151
  21       11.837827
  22       11.837827
  23       13.329927
  24       13.329928
 
  0.9523800E-01  0.9523800E-01  0.9523800E-01  0.1219512E-01
   1       -9.073167
   2       -9.073167
   3        1.602614
   4        1.602614
   5        3.133464
   6        3.133464
   7        3.322546
   8        3.322546
   9        4.310645
  10        4.310645
  11        6.139809
  12        6.139809
  13        6.286458
  14        6.286458
  15        6.435932
  16        6.435932
  17       10.173326
  18       10.173326
  19       12.014457
  20       12.014457
  21       12.015853
  22       12.015853
  23       13.492502
  24       13.492503
 
  0.7142900E-01  0.7142900E-01  0.7142900E-01  0.1219512E-01
   1       -9.120399
   2       -9.120399
   3        2.053898
   4        2.053898
   5        3.216428
   6        3.216428
   7        3.407348
   8        3.407348
   9        4.203955
  10        4.203955
  11        6.011282
  12        6.011282
  13        6.173407
  14        6.173407
  15        6.220079
  16        6.220079
  17        9.931209
  18        9.931209
  19       12.211602
  20       12.211602
  21       12.212879
  22       12.212879
  23       13.666970
  24       13.666973
 
  0.4761900E-01  0.4761900E-01  0.4761900E-01  0.1219512E-01
   1       -9.154241
   2       -9.154241
   3        2.494090
   4        2.494090
   5        3.280667
   6        3.280667
   7        3.474300
   8        3.474300
   9        4.007471
  10        4.007471
  11        5.898455
  12        5.898455
  13        6.084452
  14        6.084452
  15        6.091000
  16        6.091000
  17        9.744579
  18        9.744579
  19       12.409979
  20       12.409979
  21       12.410996
  22       12.410996
  23       13.825701
  24       13.825719
 
  0.2381000E-01  0.2381000E-01  0.2381000E-01  0.1219512E-01
   1       -9.174577
   2       -9.174577
   3        2.909972
   4        2.909972
   5        3.315842
   6        3.315842
   7        3.517547
   8        3.517547
   9        3.737197
  10        3.737197
  11        5.824619
  12        5.824619
  13        6.026867
  14        6.026867
  15        6.027294
  16        6.027294
  17        9.626916
  18        9.626916
  19       12.574454
  20       12.574454
  21       12.574885
  22       12.574885
  23       13.938701
  24       13.938764
 
  0.0000000E+00  0.0000000E+00  0.0000000E+00  0.1219512E-01
   1       -9.181350
   2       -9.181350
   3        3.244322
   4        3.244322
   5        3.245149
   6        3.245149
   7        3.532542
   8        3.532542
   9        3.532542
  10        3.532542
  11        5.799815
  12        5.799815
  13        6.007544
  14        6.007544
  15        6.007544
  16        6.007544
  17        9.586705
  18        9.586705
  19       12.643255
  20       12.643255
  21       12.643255
  22       12.643255
  23       13.963622
  24       13.963695
 
  0.2083300E-01  0.0000000E+00  0.2083300E-01  0.1219512E-01
   1       -9.174435
   2       -9.174435
   3        2.918457
   4        2.918457
   5        3.299725
   6        3.299725
   7        3.493760
   8        3.493760
   9        3.768633
  10        3.768633
  11        5.818493
  12        5.818493
  13        6.011171
  14        6.011171
  15        6.049008
  16        6.049008
  17        9.627695
  18        9.627695
  19       12.500178
  20       12.500178
  21       12.650316
  22       12.650316
  23       13.985600
  24       13.985773
 
  0.4166700E-01  0.0000000E+00  0.4166700E-01  0.1219512E-01
   1       -9.153658
   2       -9.153658
   3        2.537219
   4        2.537219
   5        3.214266
   6        3.214266
   7        3.386083
   8        3.386083
   9        4.134966
  10        4.134966
  11        5.806330
  12        5.806330
  13        6.084987
  14        6.084987
  15        6.167500
  16        6.167500
  17        9.747160
  18        9.747160
  19       12.171537
  20       12.171537
  21       12.671503
  22       12.671503
  23       14.029585
  24       14.030865
 
  0.6250000E-01  0.0000000E+00  0.6250000E-01  0.1219512E-01
   1       -9.119038
   2       -9.119038
   3        2.148627
   4        2.148627
   5        3.077200
   6        3.077200
   7        3.228819
   8        3.228819
   9        4.506825
  10        4.506825
  11        5.716925
  12        5.716925
  13        6.264794
  14        6.264794
  15        6.349003
  16        6.349003
  17        9.936124
  18        9.936124
  19       11.776921
  20       11.776921
  21       12.706815
  22       12.706815
  23       14.101498
  24       14.101769
 
  0.8333300E-01  0.0000000E+00  0.8333300E-01  0.1219512E-01
   1       -9.070616
   2       -9.070616
   3        1.758767
   4        1.758767
   5        2.908477
   6        2.908477
   7        3.041105
   8        3.041105
   9        4.869646
  10        4.869646
  11        5.586345
  12        5.586345
  13        6.506145
  14        6.506145
  15        6.578129
  16        6.578129
  17       10.183450
  18       10.183450
  19       11.371585
  20       11.371585
  21       12.756258
  22       12.756258
  23       14.202671
  24       14.203074
 
  0.1041670E+00  0.0000000E+00  0.1041670E+00  0.1219512E-01
   1       -9.008447
   2       -9.008447
   3        1.369456
   4        1.369456
   5        2.721248
   6        2.721248
   7        2.837112
   8        2.837112
   9        5.214667
  10        5.214667
  11        5.434686
  12        5.434686
  13        6.784691
  14        6.784691
  15        6.842063
  16        6.842063
  17       10.478473
  18       10.478473
  19       10.983641
  20       10.983641
  21       12.819837
  22       12.819837
  23       14.331358
  24       14.335570
 
  0.1250000E+00  0.0000000E+00  0.1250000E+00  0.1219512E-01
   1       -8.932562
   2       -8.932562
   3        0.981575
   4        0.981575
   5        2.524926
   6        2.524926
   7        2.626394
   8        2.626394
   9        5.272951
  10        5.272951
  11        5.531521
  12        5.531521
  13        7.088115
  14        7.088115
  15        7.131292
  16        7.131292
  17       10.633440
  18       10.633440
  19       10.812157
  20       10.812157
  21       12.897555
  22       12.897555
  23       14.489665
  24       14.492774
 
  0.1458330E+00  0.0000000E+00  0.1458330E+00  0.1219512E-01
   1       -8.843021
   2       -8.843021
   3        0.595602
   4        0.595602
   5        2.325984
   6        2.325984
   7        2.415164
   8        2.415164
   9        5.108439
  10        5.108439
  11        5.806350
  12        5.806350
  13        7.409108
  14        7.409108
  15        7.439073
  16        7.439073
  17       10.340510
  18       10.340510
  19       11.177280
  20       11.177280
  21       12.989421
  22       12.989421
  23       14.677749
  24       14.680027
 
  0.1666670E+00  0.0000000E+00  0.1666670E+00  0.1219512E-01
   1       -8.739933
   2       -8.739933
   3        0.211848
   4        0.211848
   5        2.128819
   6        2.128819
   7        2.207491
   8        2.207491
   9        4.946264
  10        4.946264
  11        6.021555
  12        6.021555
  13        7.742884
  14        7.742884
  15        7.760543
  16        7.760543
  17       10.125861
  18       10.125861
  19       11.568024
  20       11.568024
  21       13.095451
  22       13.095451
  23       14.894939
  24       14.895985
 
  0.1875000E+00  0.0000000E+00  0.1875000E+00  0.1219512E-01
   1       -8.623376
   2       -8.623376
   3       -0.169406
   4       -0.169406
   5        1.936646
   6        1.936646
   7        2.006238
   8        2.006238
   9        4.790140
  10        4.790140
  11        6.158785
  12        6.158785
  13        8.086130
  14        8.086130
  15        8.092164
  16        8.092164
  17       10.009971
  18       10.009971
  19       11.979414
  20       11.979414
  21       13.215645
  22       13.215645
  23       15.139081
  24       15.141859
 
  0.2083330E+00  0.0000000E+00  0.2083330E+00  0.1219512E-01
   1       -8.493462
   2       -8.493462
   3       -0.547985
   4       -0.547985
   5        1.751601
   6        1.751601
   7        1.813274
   8        1.813274
   9        4.642735
  10        4.642735
  11        6.206247
  12        6.206247
  13        8.431373
  14        8.431373
  15        8.436445
  16        8.436445
  17       10.005785
  18       10.005785
  19       12.406940
  20       12.406940
  21       13.350019
  22       13.350033
  23       15.413583
  24       15.413698
 
  0.2291670E+00  0.0000000E+00  0.2291670E+00  0.1219512E-01
   1       -8.350320
   2       -8.350320
   3       -0.923696
   4       -0.923696
   5        1.575366
   6        1.575366
   7        1.630053
   8        1.630053
   9        4.506037
  10        4.506037
  11        6.166346
  12        6.166346
  13        8.776318
  14        8.776319
  15        8.791996
  16        8.791996
  17       10.111366
  18       10.111366
  19       12.845997
  20       12.845997
  21       13.498594
  22       13.498594
  23       15.714876
  24       15.715543
 
  0.2500000E+00  0.0000000E+00  0.2500000E+00  0.1219512E-01
   1       -8.194114
   2       -8.194114
   3       -1.296206
   4       -1.296206
   5        1.409220
   6        1.409220
   7        1.457669
   8        1.457669
   9        4.381607
  10        4.381607
  11        6.055496
  12        6.055496
  13        9.125635
  14        9.125635
  15        9.151290
  16        9.151290
  17       10.310230
  18       10.310230
  19       13.291299
  20       13.291299
  21       13.661379
  22       13.661379
  23       16.042365
  24       16.047114
 
  0.2708330E+00  0.0000000E+00  0.2708330E+00  0.1219512E-01
   1       -8.024982
   2       -8.024982
   3       -1.665295
   4       -1.665295
   5        1.254104
   6        1.254104
   7        1.296928
   8        1.296928
   9        4.270585
  10        4.270585
  11        5.895926
  12        5.895926
  13        9.478210
  14        9.478210
  15        9.513033
  16        9.513034
  17       10.579694
  18       10.579694
  19       13.736179
  20       13.736179
  21       13.838493
  22       13.838493
  23       16.399909
  24       16.404635
 
  0.2916670E+00  0.0000000E+00  0.2916670E+00  0.1219512E-01
   1       -7.843098
   2       -7.843098
   3       -2.030667
   4       -2.030667
   5        1.110771
   6        1.110771
   7        1.148468
   8        1.148468
   9        4.173891
  10        4.173891
  11        5.707983
  12        5.707983
  13        9.833023
  14        9.833023
  15        9.876055
  16        9.876056
  17       10.898810
  18       10.898810
  19       14.029377
  20       14.029377
  21       14.172467
  22       14.172467
  23       16.781728
  24       16.792439
 
  0.3125000E+00  0.0000000E+00  0.3125000E+00  0.1219512E-01
   1       -7.648718
   2       -7.648718
   3       -2.391985
   4       -2.391985
   5        0.979786
   6        0.979786
   7        1.012785
   8        1.012785
   9        4.092266
  10        4.092266
  11        5.507124
  12        5.507124
  13       10.188836
  14       10.188836
  15       10.239025
  16       10.239025
  17       11.251352
  18       11.251352
  19       14.234900
  20       14.234900
  21       14.586980
  22       14.586981
  23       17.189779
  24       17.197307
 
  0.3333330E+00  0.0000000E+00  0.3333330E+00  0.1219512E-01
   1       -7.442035
   2       -7.442035
   3       -2.748709
   4       -2.748709
   5        0.861724
   6        0.861724
   7        0.890344
   8        0.890344
   9        4.026340
  10        4.026340
  11        5.304089
  12        5.304089
  13       10.544298
  14       10.544298
  15       10.600470
  16       10.600470
  17       11.625760
  18       11.625760
  19       14.454614
  20       14.454614
  21       14.963046
  22       14.963047
  23       17.606670
  24       17.612456
 
  0.3541670E+00  0.0000000E+00  0.3541670E+00  0.1219512E-01
   1       -7.223263
   2       -7.223263
   3       -3.100501
   4       -3.100501
   5        0.756939
   6        0.756939
   7        0.781454
   8        0.781454
   9        3.976588
  10        3.976588
  11        5.106088
  12        5.106088
  13       10.897434
  14       10.897434
  15       10.958280
  16       10.958280
  17       12.013850
  18       12.013850
  19       14.688595
  20       14.688595
  21       15.277613
  22       15.277615
  23       17.795975
  24       17.832499
 
  0.3750000E+00  0.0000000E+00  0.3750000E+00  0.1219512E-01
   1       -6.992759
   2       -6.992759
   3       -3.446835
   4       -3.446835
   5        0.665756
   6        0.665756
   7        0.686394
   8        0.686394
   9        3.943491
  10        3.943491
  11        4.917849
  12        4.917849
  13       11.245336
  14       11.245338
  15       11.309300
  16       11.309301
  17       12.409597
  18       12.409597
  19       14.936834
  20       14.936834
  21       15.503640
  22       15.503648
  23       17.423335
  24       17.475266
 
  0.3958330E+00  0.0000000E+00  0.3958330E+00  0.1219512E-01
   1       -6.750805
   2       -6.750805
   3       -3.787212
   4       -3.787212
   5        0.588435
   6        0.588435
   7        0.605377
   8        0.605377
   9        3.927404
  10        3.927404
  11        4.742545
  12        4.742545
  13       11.583631
  14       11.583635
  15       11.648684
  16       11.648691
  17       12.808432
  18       12.808432
  19       15.199345
  20       15.199349
  21       15.617593
  22       15.617783
  23       17.018616
  24       17.085472
 
  0.4166670E+00  0.0000000E+00  0.4166670E+00  0.1219512E-01
   1       -6.497701
   2       -6.497701
   3       -4.121156
   4       -4.121156
   5        0.525186
   6        0.525186
   7        0.538578
   8        0.538578
   9        3.928637
  10        3.928637
  11        4.582248
  12        4.582248
  13       11.905283
  14       11.905283
  15       11.968572
  16       11.968572
  17       13.206455
  18       13.206455
  19       15.476093
  20       15.476102
  21       15.610150
  22       15.610267
  23       16.628985
  24       16.676298
 
  0.4375000E+00  0.0000000E+00  0.4375000E+00  0.1219512E-01
   1       -6.233830
   2       -6.233830
   3       -4.448082
   4       -4.448082
   5        0.476186
   6        0.476186
   7        0.486139
   8        0.486139
   9        3.947495
  10        3.947495
  11        4.438326
  12        4.438326
  13       12.198782
  14       12.198783
  15       12.256107
  16       12.256110
  17       13.599817
  18       13.599828
  19       15.492040
  20       15.493927
  21       15.767371
  22       15.769947
  23       16.293457
  24       16.328806
 
  0.4583330E+00  0.0000000E+00  0.4583330E+00  0.1219512E-01
   1       -5.959607
   2       -5.959607
   3       -4.767473
   4       -4.767473
   5        0.441546
   6        0.441546
   7        0.448126
   8        0.448126
   9        3.984190
  10        3.984190
  11        4.311625
  12        4.311625
  13       12.445850
  14       12.445850
  15       12.491117
  16       12.491118
  17       13.984219
  18       13.984219
  19       15.286541
  20       15.286610
  21       16.012875
  22       16.016612
  23       16.061945
  24       16.071514
 
  0.4791670E+00  0.0000000E+00  0.4791670E+00  0.1219512E-01
   1       -5.675377
   2       -5.675377
   3       -5.078816
   4       -5.078816
   5        0.421403
   6        0.421403
   7        0.424676
   8        0.424676
   9        4.038899
  10        4.038899
  11        4.202663
  12        4.202663
  13       12.620090
  14       12.620122
  15       12.645730
  16       12.645758
  17       14.354168
  18       14.354170
  19       15.017290
  20       15.017301
  21       15.835765
  22       15.835906
  23       15.861382
  24       15.861423
 
  0.5000000E+00  0.0000000E+00  0.5000000E+00  0.1219512E-01
   1       -5.381646
   2       -5.381646
   3       -5.381645
   4       -5.381645
   5        0.415753
   6        0.415753
   7        0.415753
   8        0.415753
   9        4.111717
  10        4.111717
  11        4.111717
  12        4.111717
  13       12.692095
  14       12.692096
  15       12.692096
  16       12.692096
  17       14.701988
  18       14.701989
  19       14.701989
  20       14.701993
  21       15.780769
  22       15.780770
  23       15.780771
  24       15.780823
 
  0.5156250E+00  0.3125000E-01  0.5156250E+00  0.1219512E-01
   1       -5.387469
   2       -5.387469
   3       -5.372394
   4       -5.372394
   5        0.366522
   6        0.366522
   7        0.423678
   8        0.423678
   9        4.117742
  10        4.117742
  11        4.191326
  12        4.191326
  13       12.600665
  14       12.600672
  15       12.649430
  16       12.649472
  17       14.485664
  18       14.485664
  19       14.786230
  20       14.786230
  21       15.606848
  22       15.606854
  23       16.000811
  24       16.000846
 
  0.5312500E+00  0.6250000E-01  0.5312500E+00  0.1219512E-01
   1       -5.404942
   2       -5.404942
   3       -5.345133
   4       -5.345133
   5        0.234596
   6        0.234596
   7        0.444551
   8        0.444551
   9        4.137449
  10        4.137449
  11        4.415672
  12        4.415672
  13       12.387678
  14       12.387686
  15       12.500008
  16       12.500015
  17       14.068384
  18       14.068384
  19       14.992696
  20       14.992696
  21       15.257668
  22       15.257668
  23       16.441425
  24       16.441543
 
  0.5468750E+00  0.9375000E-01  0.5468750E+00  0.1219512E-01
   1       -5.435353
   2       -5.435353
   3       -5.299708
   4       -5.299708
   5        0.048915
   6        0.048915
   7        0.479186
   8        0.479186
   9        4.170114
  10        4.170114
  11        4.756428
  12        4.756428
  13       12.100678
  14       12.100679
  15       12.272265
  16       12.272265
  17       13.606552
  18       13.606552
  19       14.865628
  20       14.865628
  21       15.272123
  22       15.272124
  23       16.935672
  24       16.938549
 
  0.5625000E+00  0.1250000E+00  0.5625000E+00  0.1219512E-01
   1       -5.480430
   2       -5.480430
   3       -5.236117
   4       -5.236117
   5       -0.159692
   6       -0.159692
   7        0.527402
   8        0.527402
   9        4.215432
  10        4.215432
  11        5.184123
  12        5.184123
  13       11.777004
  14       11.777005
  15       11.991015
  16       11.991016
  17       13.139112
  18       13.139112
  19       14.468528
  20       14.468528
  21       15.580864
  22       15.580880
  23       17.437492
  24       17.465560
 
  0.5781250E+00  0.1562500E+00  0.5781250E+00  0.1219512E-01
   1       -5.542284
   2       -5.542284
   3       -5.154365
   4       -5.154365
   5       -0.366940
   6       -0.366940
   7        0.588923
   8        0.588923
   9        4.272958
  10        4.272958
  11        5.675938
  12        5.675938
  13       11.438008
  14       11.438008
  15       11.675972
  16       11.675974
  17       12.677766
  18       12.677766
  19       14.076465
  20       14.076465
  21       15.894376
  22       15.894386
  23       17.830079
  24       17.840467
 
  0.5937500E+00  0.1875000E+00  0.5937500E+00  0.1219512E-01
   1       -5.623039
   2       -5.623039
   3       -5.054462
   4       -5.054462
   5       -0.555628
   6       -0.555628
   7        0.663382
   8        0.663382
   9        4.342079
  10        4.342079
  11        6.215778
  12        6.215778
  13       11.095768
  14       11.095768
  15       11.341394
  16       11.341395
  17       12.227516
  18       12.227516
  19       13.694852
  20       13.694852
  21       16.193077
  22       16.193081
  23       18.130016
  24       18.185920
 
  0.6093750E+00  0.2187500E+00  0.6093750E+00  0.1219512E-01
   1       -5.724347
   2       -5.724347
   3       -4.936407
   4       -4.936407
   5       -0.714129
   6       -0.714129
   7        0.750327
   8        0.750327
   9        4.421972
  10        4.421972
  11        6.792142
  12        6.792142